(written by ASE)

2000 atoms
1 atom types

0.0      28.700000000000003  xlo xhi
0.0      28.700000000000003  ylo yhi
0.0      28.700000000000003  zlo zhi

Atoms # atomic

     1   1                       0                       0                       0
     2   1      1.4350000000000001      1.4350000000000001      1.4350000000000001
     3   1                       0                       0      2.8700000000000001
     4   1      1.4350000000000001      1.4350000000000001      4.3049999999999997
     5   1                       0                       0      5.7400000000000002
     6   1      1.4350000000000001      1.4350000000000001      7.1750000000000007
     7   1                       0                       0      8.6099999999999994
     8   1      1.4350000000000001      1.4350000000000001                  10.045
     9   1                       0                       0                   11.48
    10   1      1.4350000000000001      1.4350000000000001      12.915000000000001
    11   1                       0                       0      14.350000000000001
    12   1      1.4350000000000001      1.4350000000000001      15.785000000000002
    13   1                       0                       0      17.219999999999999
    14   1      1.4350000000000001      1.4350000000000001      18.654999999999998
    15   1                       0                       0                   20.09
    16   1      1.4350000000000001      1.4350000000000001      21.524999999999999
    17   1                       0                       0      22.960000000000001
    18   1      1.4350000000000001      1.4350000000000001                  24.395
    19   1                       0                       0      25.830000000000002
    20   1      1.4350000000000001      1.4350000000000001      27.265000000000001
    21   1                       0      2.8700000000000001                       0
    22   1      1.4350000000000001      4.3049999999999997      1.4350000000000001
    23   1                       0      2.8700000000000001      2.8700000000000001
    24   1      1.4350000000000001      4.3049999999999997      4.3049999999999997
    25   1                       0      2.8700000000000001      5.7400000000000002
    26   1      1.4350000000000001      4.3049999999999997      7.1750000000000007
    27   1                       0      2.8700000000000001      8.6099999999999994
    28   1      1.4350000000000001      4.3049999999999997                  10.045
    29   1                       0      2.8700000000000001                   11.48
    30   1      1.4350000000000001      4.3049999999999997      12.915000000000001
    31   1                       0      2.8700000000000001      14.350000000000001
    32   1      1.4350000000000001      4.3049999999999997      15.785000000000002
    33   1                       0      2.8700000000000001      17.219999999999999
    34   1      1.4350000000000001      4.3049999999999997      18.654999999999998
    35   1                       0      2.8700000000000001                   20.09
    36   1      1.4350000000000001      4.3049999999999997      21.524999999999999
    37   1                       0      2.8700000000000001      22.960000000000001
    38   1      1.4350000000000001      4.3049999999999997                  24.395
    39   1                       0      2.8700000000000001      25.830000000000002
    40   1      1.4350000000000001      4.3049999999999997      27.265000000000001
    41   1                       0      5.7400000000000002                       0
    42   1      1.4350000000000001      7.1750000000000007      1.4350000000000001
    43   1                       0      5.7400000000000002      2.8700000000000001
    44   1      1.4350000000000001      7.1750000000000007      4.3049999999999997
    45   1                       0      5.7400000000000002      5.7400000000000002
    46   1      1.4350000000000001      7.1750000000000007      7.1750000000000007
    47   1                       0      5.7400000000000002      8.6099999999999994
    48   1      1.4350000000000001      7.1750000000000007                  10.045
    49   1                       0      5.7400000000000002                   11.48
    50   1      1.4350000000000001      7.1750000000000007      12.915000000000001
    51   1                       0      5.7400000000000002      14.350000000000001
    52   1      1.4350000000000001      7.1750000000000007      15.785000000000002
    53   1                       0      5.7400000000000002      17.219999999999999
    54   1      1.4350000000000001      7.1750000000000007      18.654999999999998
    55   1                       0      5.7400000000000002                   20.09
    56   1      1.4350000000000001      7.1750000000000007      21.524999999999999
    57   1                       0      5.7400000000000002      22.960000000000001
    58   1      1.4350000000000001      7.1750000000000007                  24.395
    59   1                       0      5.7400000000000002      25.830000000000002
    60   1      1.4350000000000001      7.1750000000000007      27.265000000000001
    61   1                       0      8.6099999999999994                       0
    62   1      1.4350000000000001                  10.045      1.4350000000000001
    63   1                       0      8.6099999999999994      2.8700000000000001
    64   1      1.4350000000000001                  10.045      4.3049999999999997
    65   1                       0      8.6099999999999994      5.7400000000000002
    66   1      1.4350000000000001                  10.045      7.1750000000000007
    67   1                       0      8.6099999999999994      8.6099999999999994
    68   1      1.4350000000000001                  10.045                  10.045
    69   1                       0      8.6099999999999994                   11.48
    70   1      1.4350000000000001                  10.045      12.915000000000001
    71   1                       0      8.6099999999999994      14.350000000000001
    72   1      1.4350000000000001                  10.045      15.785000000000002
    73   1                       0      8.6099999999999994      17.219999999999999
    74   1      1.4350000000000001                  10.045      18.654999999999998
    75   1                       0      8.6099999999999994                   20.09
    76   1      1.4350000000000001                  10.045      21.524999999999999
    77   1                       0      8.6099999999999994      22.960000000000001
    78   1      1.4350000000000001                  10.045                  24.395
    79   1                       0      8.6099999999999994      25.830000000000002
    80   1      1.4350000000000001                  10.045      27.265000000000001
    81   1                       0                   11.48                       0
    82   1      1.4350000000000001      12.915000000000001      1.4350000000000001
    83   1                       0                   11.48      2.8700000000000001
    84   1      1.4350000000000001      12.915000000000001      4.3049999999999997
    85   1                       0                   11.48      5.7400000000000002
    86   1      1.4350000000000001      12.915000000000001      7.1750000000000007
    87   1                       0                   11.48      8.6099999999999994
    88   1      1.4350000000000001      12.915000000000001                  10.045
    89   1                       0                   11.48                   11.48
    90   1      1.4350000000000001      12.915000000000001      12.915000000000001
    91   1                       0                   11.48      14.350000000000001
    92   1      1.4350000000000001      12.915000000000001      15.785000000000002
    93   1                       0                   11.48      17.219999999999999
    94   1      1.4350000000000001      12.915000000000001      18.654999999999998
    95   1                       0                   11.48                   20.09
    96   1      1.4350000000000001      12.915000000000001      21.524999999999999
    97   1                       0                   11.48      22.960000000000001
    98   1      1.4350000000000001      12.915000000000001                  24.395
    99   1                       0                   11.48      25.830000000000002
   100   1      1.4350000000000001      12.915000000000001      27.265000000000001
   101   1                       0      14.350000000000001                       0
   102   1      1.4350000000000001      15.785000000000002      1.4350000000000001
   103   1                       0      14.350000000000001      2.8700000000000001
   104   1      1.4350000000000001      15.785000000000002      4.3049999999999997
   105   1                       0      14.350000000000001      5.7400000000000002
   106   1      1.4350000000000001      15.785000000000002      7.1750000000000007
   107   1                       0      14.350000000000001      8.6099999999999994
   108   1      1.4350000000000001      15.785000000000002                  10.045
   109   1                       0      14.350000000000001                   11.48
   110   1      1.4350000000000001      15.785000000000002      12.915000000000001
   111   1                       0      14.350000000000001      14.350000000000001
   112   1      1.4350000000000001      15.785000000000002      15.785000000000002
   113   1                       0      14.350000000000001      17.219999999999999
   114   1      1.4350000000000001      15.785000000000002      18.654999999999998
   115   1                       0      14.350000000000001                   20.09
   116   1      1.4350000000000001      15.785000000000002      21.524999999999999
   117   1                       0      14.350000000000001      22.960000000000001
   118   1      1.4350000000000001      15.785000000000002                  24.395
   119   1                       0      14.350000000000001      25.830000000000002
   120   1      1.4350000000000001      15.785000000000002      27.265000000000001
   121   1                       0      17.219999999999999                       0
   122   1      1.4350000000000001      18.654999999999998      1.4350000000000001
   123   1                       0      17.219999999999999      2.8700000000000001
   124   1      1.4350000000000001      18.654999999999998      4.3049999999999997
   125   1                       0      17.219999999999999      5.7400000000000002
   126   1      1.4350000000000001      18.654999999999998      7.1750000000000007
   127   1                       0      17.219999999999999      8.6099999999999994
   128   1      1.4350000000000001      18.654999999999998                  10.045
   129   1                       0      17.219999999999999                   11.48
   130   1      1.4350000000000001      18.654999999999998      12.915000000000001
   131   1                       0      17.219999999999999      14.350000000000001
   132   1      1.4350000000000001      18.654999999999998      15.785000000000002
   133   1                       0      17.219999999999999      17.219999999999999
   134   1      1.4350000000000001      18.654999999999998      18.654999999999998
   135   1                       0      17.219999999999999                   20.09
   136   1      1.4350000000000001      18.654999999999998      21.524999999999999
   137   1                       0      17.219999999999999      22.960000000000001
   138   1      1.4350000000000001      18.654999999999998                  24.395
   139   1                       0      17.219999999999999      25.830000000000002
   140   1      1.4350000000000001      18.654999999999998      27.265000000000001
   141   1                       0                   20.09                       0
   142   1      1.4350000000000001      21.524999999999999      1.4350000000000001
   143   1                       0                   20.09      2.8700000000000001
   144   1      1.4350000000000001      21.524999999999999      4.3049999999999997
   145   1                       0                   20.09      5.7400000000000002
   146   1      1.4350000000000001      21.524999999999999      7.1750000000000007
   147   1                       0                   20.09      8.6099999999999994
   148   1      1.4350000000000001      21.524999999999999                  10.045
   149   1                       0                   20.09                   11.48
   150   1      1.4350000000000001      21.524999999999999      12.915000000000001
   151   1                       0                   20.09      14.350000000000001
   152   1      1.4350000000000001      21.524999999999999      15.785000000000002
   153   1                       0                   20.09      17.219999999999999
   154   1      1.4350000000000001      21.524999999999999      18.654999999999998
   155   1                       0                   20.09                   20.09
   156   1      1.4350000000000001      21.524999999999999      21.524999999999999
   157   1                       0                   20.09      22.960000000000001
   158   1      1.4350000000000001      21.524999999999999                  24.395
   159   1                       0                   20.09      25.830000000000002
   160   1      1.4350000000000001      21.524999999999999      27.265000000000001
   161   1                       0      22.960000000000001                       0
   162   1      1.4350000000000001                  24.395      1.4350000000000001
   163   1                       0      22.960000000000001      2.8700000000000001
   164   1      1.4350000000000001                  24.395      4.3049999999999997
   165   1                       0      22.960000000000001      5.7400000000000002
   166   1      1.4350000000000001                  24.395      7.1750000000000007
   167   1                       0      22.960000000000001      8.6099999999999994
   168   1      1.4350000000000001                  24.395                  10.045
   169   1                       0      22.960000000000001                   11.48
   170   1      1.4350000000000001                  24.395      12.915000000000001
   171   1                       0      22.960000000000001      14.350000000000001
   172   1      1.4350000000000001                  24.395      15.785000000000002
   173   1                       0      22.960000000000001      17.219999999999999
   174   1      1.4350000000000001                  24.395      18.654999999999998
   175   1                       0      22.960000000000001                   20.09
   176   1      1.4350000000000001                  24.395      21.524999999999999
   177   1                       0      22.960000000000001      22.960000000000001
   178   1      1.4350000000000001                  24.395                  24.395
   179   1                       0      22.960000000000001      25.830000000000002
   180   1      1.4350000000000001                  24.395      27.265000000000001
   181   1                       0      25.830000000000002                       0
   182   1      1.4350000000000001      27.265000000000001      1.4350000000000001
   183   1                       0      25.830000000000002      2.8700000000000001
   184   1      1.4350000000000001      27.265000000000001      4.3049999999999997
   185   1                       0      25.830000000000002      5.7400000000000002
   186   1      1.4350000000000001      27.265000000000001      7.1750000000000007
   187   1                       0      25.830000000000002      8.6099999999999994
   188   1      1.4350000000000001      27.265000000000001                  10.045
   189   1                       0      25.830000000000002                   11.48
   190   1      1.4350000000000001      27.265000000000001      12.915000000000001
   191   1                       0      25.830000000000002      14.350000000000001
   192   1      1.4350000000000001      27.265000000000001      15.785000000000002
   193   1                       0      25.830000000000002      17.219999999999999
   194   1      1.4350000000000001      27.265000000000001      18.654999999999998
   195   1                       0      25.830000000000002                   20.09
   196   1      1.4350000000000001      27.265000000000001      21.524999999999999
   197   1                       0      25.830000000000002      22.960000000000001
   198   1      1.4350000000000001      27.265000000000001                  24.395
   199   1                       0      25.830000000000002      25.830000000000002
   200   1      1.4350000000000001      27.265000000000001      27.265000000000001
   201   1      2.8700000000000001                       0                       0
   202   1      4.3049999999999997      1.4350000000000001      1.4350000000000001
   203   1      2.8700000000000001                       0      2.8700000000000001
   204   1      4.3049999999999997      1.4350000000000001      4.3049999999999997
   205   1      2.8700000000000001                       0      5.7400000000000002
   206   1      4.3049999999999997      1.4350000000000001      7.1750000000000007
   207   1      2.8700000000000001                       0      8.6099999999999994
   208   1      4.3049999999999997      1.4350000000000001                  10.045
   209   1      2.8700000000000001                       0                   11.48
   210   1      4.3049999999999997      1.4350000000000001      12.915000000000001
   211   1      2.8700000000000001                       0      14.350000000000001
   212   1      4.3049999999999997      1.4350000000000001      15.785000000000002
   213   1      2.8700000000000001                       0      17.219999999999999
   214   1      4.3049999999999997      1.4350000000000001      18.654999999999998
   215   1      2.8700000000000001                       0                   20.09
   216   1      4.3049999999999997      1.4350000000000001      21.524999999999999
   217   1      2.8700000000000001                       0      22.960000000000001
   218   1      4.3049999999999997      1.4350000000000001                  24.395
   219   1      2.8700000000000001                       0      25.830000000000002
   220   1      4.3049999999999997      1.4350000000000001      27.265000000000001
   221   1      2.8700000000000001      2.8700000000000001                       0
   222   1      4.3049999999999997      4.3049999999999997      1.4350000000000001
   223   1      2.8700000000000001      2.8700000000000001      2.8700000000000001
   224   1      4.3049999999999997      4.3049999999999997      4.3049999999999997
   225   1      2.8700000000000001      2.8700000000000001      5.7400000000000002
   226   1      4.3049999999999997      4.3049999999999997      7.1750000000000007
   227   1      2.8700000000000001      2.8700000000000001      8.6099999999999994
   228   1      4.3049999999999997      4.3049999999999997                  10.045
   229   1      2.8700000000000001      2.8700000000000001                   11.48
   230   1      4.3049999999999997      4.3049999999999997      12.915000000000001
   231   1      2.8700000000000001      2.8700000000000001      14.350000000000001
   232   1      4.3049999999999997      4.3049999999999997      15.785000000000002
   233   1      2.8700000000000001      2.8700000000000001      17.219999999999999
   234   1      4.3049999999999997      4.3049999999999997      18.654999999999998
   235   1      2.8700000000000001      2.8700000000000001                   20.09
   236   1      4.3049999999999997      4.3049999999999997      21.524999999999999
   237   1      2.8700000000000001      2.8700000000000001      22.960000000000001
   238   1      4.3049999999999997      4.3049999999999997                  24.395
   239   1      2.8700000000000001      2.8700000000000001      25.830000000000002
   240   1      4.3049999999999997      4.3049999999999997      27.265000000000001
   241   1      2.8700000000000001      5.7400000000000002                       0
   242   1      4.3049999999999997      7.1750000000000007      1.4350000000000001
   243   1      2.8700000000000001      5.7400000000000002      2.8700000000000001
   244   1      4.3049999999999997      7.1750000000000007      4.3049999999999997
   245   1      2.8700000000000001      5.7400000000000002      5.7400000000000002
   246   1      4.3049999999999997      7.1750000000000007      7.1750000000000007
   247   1      2.8700000000000001      5.7400000000000002      8.6099999999999994
   248   1      4.3049999999999997      7.1750000000000007                  10.045
   249   1      2.8700000000000001      5.7400000000000002                   11.48
   250   1      4.3049999999999997      7.1750000000000007      12.915000000000001
   251   1      2.8700000000000001      5.7400000000000002      14.350000000000001
   252   1      4.3049999999999997      7.1750000000000007      15.785000000000002
   253   1      2.8700000000000001      5.7400000000000002      17.219999999999999
   254   1      4.3049999999999997      7.1750000000000007      18.654999999999998
   255   1      2.8700000000000001      5.7400000000000002                   20.09
   256   1      4.3049999999999997      7.1750000000000007      21.524999999999999
   257   1      2.8700000000000001      5.7400000000000002      22.960000000000001
   258   1      4.3049999999999997      7.1750000000000007                  24.395
   259   1      2.8700000000000001      5.7400000000000002      25.830000000000002
   260   1      4.3049999999999997      7.1750000000000007      27.265000000000001
   261   1      2.8700000000000001      8.6099999999999994                       0
   262   1      4.3049999999999997                  10.045      1.4350000000000001
   263   1      2.8700000000000001      8.6099999999999994      2.8700000000000001
   264   1      4.3049999999999997                  10.045      4.3049999999999997
   265   1      2.8700000000000001      8.6099999999999994      5.7400000000000002
   266   1      4.3049999999999997                  10.045      7.1750000000000007
   267   1      2.8700000000000001      8.6099999999999994      8.6099999999999994
   268   1      4.3049999999999997                  10.045                  10.045
   269   1      2.8700000000000001      8.6099999999999994                   11.48
   270   1      4.3049999999999997                  10.045      12.915000000000001
   271   1      2.8700000000000001      8.6099999999999994      14.350000000000001
   272   1      4.3049999999999997                  10.045      15.785000000000002
   273   1      2.8700000000000001      8.6099999999999994      17.219999999999999
   274   1      4.3049999999999997                  10.045      18.654999999999998
   275   1      2.8700000000000001      8.6099999999999994                   20.09
   276   1      4.3049999999999997                  10.045      21.524999999999999
   277   1      2.8700000000000001      8.6099999999999994      22.960000000000001
   278   1      4.3049999999999997                  10.045                  24.395
   279   1      2.8700000000000001      8.6099999999999994      25.830000000000002
   280   1      4.3049999999999997                  10.045      27.265000000000001
   281   1      2.8700000000000001                   11.48                       0
   282   1      4.3049999999999997      12.915000000000001      1.4350000000000001
   283   1      2.8700000000000001                   11.48      2.8700000000000001
   284   1      4.3049999999999997      12.915000000000001      4.3049999999999997
   285   1      2.8700000000000001                   11.48      5.7400000000000002
   286   1      4.3049999999999997      12.915000000000001      7.1750000000000007
   287   1      2.8700000000000001                   11.48      8.6099999999999994
   288   1      4.3049999999999997      12.915000000000001                  10.045
   289   1      2.8700000000000001                   11.48                   11.48
   290   1      4.3049999999999997      12.915000000000001      12.915000000000001
   291   1      2.8700000000000001                   11.48      14.350000000000001
   292   1      4.3049999999999997      12.915000000000001      15.785000000000002
   293   1      2.8700000000000001                   11.48      17.219999999999999
   294   1      4.3049999999999997      12.915000000000001      18.654999999999998
   295   1      2.8700000000000001                   11.48                   20.09
   296   1      4.3049999999999997      12.915000000000001      21.524999999999999
   297   1      2.8700000000000001                   11.48      22.960000000000001
   298   1      4.3049999999999997      12.915000000000001                  24.395
   299   1      2.8700000000000001                   11.48      25.830000000000002
   300   1      4.3049999999999997      12.915000000000001      27.265000000000001
   301   1      2.8700000000000001      14.350000000000001                       0
   302   1      4.3049999999999997      15.785000000000002      1.4350000000000001
   303   1      2.8700000000000001      14.350000000000001      2.8700000000000001
   304   1      4.3049999999999997      15.785000000000002      4.3049999999999997
   305   1      2.8700000000000001      14.350000000000001      5.7400000000000002
   306   1      4.3049999999999997      15.785000000000002      7.1750000000000007
   307   1      2.8700000000000001      14.350000000000001      8.6099999999999994
   308   1      4.3049999999999997      15.785000000000002                  10.045
   309   1      2.8700000000000001      14.350000000000001                   11.48
   310   1      4.3049999999999997      15.785000000000002      12.915000000000001
   311   1      2.8700000000000001      14.350000000000001      14.350000000000001
   312   1      4.3049999999999997      15.785000000000002      15.785000000000002
   313   1      2.8700000000000001      14.350000000000001      17.219999999999999
   314   1      4.3049999999999997      15.785000000000002      18.654999999999998
   315   1      2.8700000000000001      14.350000000000001                   20.09
   316   1      4.3049999999999997      15.785000000000002      21.524999999999999
   317   1      2.8700000000000001      14.350000000000001      22.960000000000001
   318   1      4.3049999999999997      15.785000000000002                  24.395
   319   1      2.8700000000000001      14.350000000000001      25.830000000000002
   320   1      4.3049999999999997      15.785000000000002      27.265000000000001
   321   1      2.8700000000000001      17.219999999999999                       0
   322   1      4.3049999999999997      18.654999999999998      1.4350000000000001
   323   1      2.8700000000000001      17.219999999999999      2.8700000000000001
   324   1      4.3049999999999997      18.654999999999998      4.3049999999999997
   325   1      2.8700000000000001      17.219999999999999      5.7400000000000002
   326   1      4.3049999999999997      18.654999999999998      7.1750000000000007
   327   1      2.8700000000000001      17.219999999999999      8.6099999999999994
   328   1      4.3049999999999997      18.654999999999998                  10.045
   329   1      2.8700000000000001      17.219999999999999                   11.48
   330   1      4.3049999999999997      18.654999999999998      12.915000000000001
   331   1      2.8700000000000001      17.219999999999999      14.350000000000001
   332   1      4.3049999999999997      18.654999999999998      15.785000000000002
   333   1      2.8700000000000001      17.219999999999999      17.219999999999999
   334   1      4.3049999999999997      18.654999999999998      18.654999999999998
   335   1      2.8700000000000001      17.219999999999999                   20.09
   336   1      4.3049999999999997      18.654999999999998      21.524999999999999
   337   1      2.8700000000000001      17.219999999999999      22.960000000000001
   338   1      4.3049999999999997      18.654999999999998                  24.395
   339   1      2.8700000000000001      17.219999999999999      25.830000000000002
   340   1      4.3049999999999997      18.654999999999998      27.265000000000001
   341   1      2.8700000000000001                   20.09                       0
   342   1      4.3049999999999997      21.524999999999999      1.4350000000000001
   343   1      2.8700000000000001                   20.09      2.8700000000000001
   344   1      4.3049999999999997      21.524999999999999      4.3049999999999997
   345   1      2.8700000000000001                   20.09      5.7400000000000002
   346   1      4.3049999999999997      21.524999999999999      7.1750000000000007
   347   1      2.8700000000000001                   20.09      8.6099999999999994
   348   1      4.3049999999999997      21.524999999999999                  10.045
   349   1      2.8700000000000001                   20.09                   11.48
   350   1      4.3049999999999997      21.524999999999999      12.915000000000001
   351   1      2.8700000000000001                   20.09      14.350000000000001
   352   1      4.3049999999999997      21.524999999999999      15.785000000000002
   353   1      2.8700000000000001                   20.09      17.219999999999999
   354   1      4.3049999999999997      21.524999999999999      18.654999999999998
   355   1      2.8700000000000001                   20.09                   20.09
   356   1      4.3049999999999997      21.524999999999999      21.524999999999999
   357   1      2.8700000000000001                   20.09      22.960000000000001
   358   1      4.3049999999999997      21.524999999999999                  24.395
   359   1      2.8700000000000001                   20.09      25.830000000000002