(written by ASE)

4000 atoms
1 atom types

0.0      36.600000000000001  xlo xhi
0.0      36.600000000000001  ylo yhi
0.0      36.600000000000001  zlo zhi

Atoms # atomic

     1   1                       0                       0                       0
     2   1                       0      1.8300000000000001      1.8300000000000001
     3   1      1.8300000000000001                       0      1.8300000000000001
     4   1      1.8300000000000001      1.8300000000000001                       0
     5   1                       0                       0      3.6600000000000001
     6   1                       0      1.8300000000000001      5.4900000000000002
     7   1      1.8300000000000001                       0      5.4900000000000002
     8   1      1.8300000000000001      1.8300000000000001      3.6600000000000001
     9   1                       0                       0      7.3200000000000003
    10   1                       0      1.8300000000000001      9.1500000000000004
    11   1      1.8300000000000001                       0      9.1500000000000004
    12   1      1.8300000000000001      1.8300000000000001      7.3200000000000003
    13   1                       0                       0                   10.98
    14   1                       0      1.8300000000000001                   12.81
    15   1      1.8300000000000001                       0                   12.81
    16   1      1.8300000000000001      1.8300000000000001                   10.98
    17   1                       0                       0      14.640000000000001
    18   1                       0      1.8300000000000001      16.469999999999999
    19   1      1.8300000000000001                       0      16.469999999999999
    20   1      1.8300000000000001      1.8300000000000001      14.640000000000001
    21   1                       0                       0      18.300000000000001
    22   1                       0      1.8300000000000001      20.130000000000003
    23   1      1.8300000000000001                       0      20.130000000000003
    24   1      1.8300000000000001      1.8300000000000001      18.300000000000001
    25   1                       0                       0      21.960000000000001
    26   1                       0      1.8300000000000001      23.789999999999999
    27   1      1.8300000000000001                       0      23.789999999999999
    28   1      1.8300000000000001      1.8300000000000001      21.960000000000001
    29   1                       0                       0      25.620000000000001
    30   1                       0      1.8300000000000001      27.450000000000003
    31   1      1.8300000000000001                       0      27.450000000000003
    32   1      1.8300000000000001      1.8300000000000001      25.620000000000001
    33   1                       0                       0      29.280000000000001
    34   1                       0      1.8300000000000001      31.109999999999999
    35   1      1.8300000000000001                       0      31.109999999999999
    36   1      1.8300000000000001      1.8300000000000001      29.280000000000001
    37   1                       0                       0      32.939999999999998
    38   1                       0      1.8300000000000001      34.769999999999996
    39   1      1.8300000000000001                       0      34.769999999999996
    40   1      1.8300000000000001      1.8300000000000001      32.939999999999998
    41   1                       0      3.6600000000000001                       0
    42   1                       0      5.4900000000000002      1.8300000000000001
    43   1      1.8300000000000001      3.6600000000000001      1.8300000000000001
    44   1      1.8300000000000001      5.4900000000000002                       0
    45   1                       0      3.6600000000000001      3.6600000000000001
    46   1                       0      5.4900000000000002      5.4900000000000002
    47   1      1.8300000000000001      3.6600000000000001      5.4900000000000002
    48   1      1.8300000000000001      5.4900000000000002      3.6600000000000001
    49   1                       0      3.6600000000000001      7.3200000000000003
    50   1                       0      5.4900000000000002      9.1500000000000004
    51   1      1.8300000000000001      3.6600000000000001      9.1500000000000004
    52   1      1.8300000000000001      5.4900000000000002      7.3200000000000003
    53   1                       0      3.6600000000000001                   10.98
    54   1                       0      5.4900000000000002                   12.81
    55   1      1.8300000000000001      3.6600000000000001                   12.81
    56   1      1.8300000000000001      5.4900000000000002                   10.98
    57   1                       0      3.6600000000000001      14.640000000000001
    58   1                       0      5.4900000000000002      16.469999999999999
    59   1      1.8300000000000001      3.6600000000000001      16.469999999999999
    60   1      1.8300000000000001      5.4900000000000002      14.640000000000001
    61   1                       0      3.6600000000000001      18.300000000000001
    62   1                       0      5.4900000000000002      20.130000000000003
    63   1      1.8300000000000001      3.6600000000000001      20.130000000000003
    64   1      1.8300000000000001      5.4900000000000002      18.300000000000001
    65   1                       0      3.6600000000000001      21.960000000000001
    66   1                       0      5.4900000000000002      23.789999999999999
    67   1      1.8300000000000001      3.6600000000000001      23.789999999999999
    68   1      1.8300000000000001      5.4900000000000002      21.960000000000001
    69   1                       0      3.6600000000000001      25.620000000000001
    70   1                       0      5.4900000000000002      27.450000000000003
    71   1      1.8300000000000001      3.6600000000000001      27.450000000000003
    72   1      1.8300000000000001      5.4900000000000002      25.620000000000001
    73   1                       0      3.6600000000000001      29.280000000000001
    74   1                       0      5.4900000000000002      31.109999999999999
    75   1      1.8300000000000001      3.6600000000000001      31.109999999999999
    76   1      1.8300000000000001      5.4900000000000002      29.280000000000001
    77   1                       0      3.6600000000000001      32.939999999999998
    78   1                       0      5.4900000000000002      34.769999999999996
    79   1      1.8300000000000001      3.6600000000000001      34.769999999999996
    80   1      1.8300000000000001      5.4900000000000002      32.939999999999998
    81   1                       0      7.3200000000000003                       0
    82   1                       0      9.1500000000000004      1.8300000000000001
    83   1      1.8300000000000001      7.3200000000000003      1.8300000000000001
    84   1      1.8300000000000001      9.1500000000000004                       0
    85   1                       0      7.3200000000000003      3.6600000000000001
    86   1                       0      9.1500000000000004      5.4900000000000002
    87   1      1.8300000000000001      7.3200000000000003      5.4900000000000002
    88   1      1.8300000000000001      9.1500000000000004      3.6600000000000001
    89   1                       0      7.3200000000000003      7.3200000000000003
    90   1                       0      9.1500000000000004      9.1500000000000004
    91   1      1.8300000000000001      7.3200000000000003      9.1500000000000004
    92   1      1.8300000000000001      9.1500000000000004      7.3200000000000003
    93   1                       0      7.3200000000000003                   10.98
    94   1                       0      9.1500000000000004                   12.81
    95   1      1.8300000000000001      7.3200000000000003                   12.81
    96   1      1.8300000000000001      9.1500000000000004                   10.98
    97   1                       0      7.3200000000000003      14.640000000000001
    98   1                       0      9.1500000000000004      16.469999999999999
    99   1      1.8300000000000001      7.3200000000000003      16.469999999999999
   100   1      1.8300000000000001      9.1500000000000004      14.640000000000001
   101   1                       0      7.3200000000000003      18.300000000000001
   102   1                       0      9.1500000000000004      20.130000000000003
   103   1      1.8300000000000001      7.3200000000000003      20.130000000000003
   104   1      1.8300000000000001      9.1500000000000004      18.300000000000001
   105   1                       0      7.3200000000000003      21.960000000000001
   106   1                       0      9.1500000000000004      23.789999999999999
   107   1      1.8300000000000001      7.3200000000000003      23.789999999999999
   108   1      1.8300000000000001      9.1500000000000004      21.960000000000001
   109   1                       0      7.3200000000000003      25.620000000000001
   110   1                       0      9.1500000000000004      27.450000000000003
   111   1      1.8300000000000001      7.3200000000000003      27.450000000000003
   112   1      1.8300000000000001      9.1500000000000004      25.620000000000001
   113   1                       0      7.3200000000000003      29.280000000000001
   114   1                       0      9.1500000000000004      31.109999999999999
   115   1      1.8300000000000001      7.3200000000000003      31.109999999999999
   116   1      1.8300000000000001      9.1500000000000004      29.280000000000001
   117   1                       0      7.3200000000000003      32.939999999999998
   118   1                       0      9.1500000000000004      34.769999999999996
   119   1      1.8300000000000001      7.3200000000000003      34.769999999999996
   120   1      1.8300000000000001      9.1500000000000004      32.939999999999998
   121   1                       0                   10.98                       0
   122   1                       0                   12.81      1.8300000000000001
   123   1      1.8300000000000001                   10.98      1.8300000000000001
   124   1      1.8300000000000001                   12.81                       0
   125   1                       0                   10.98      3.6600000000000001
   126   1                       0                   12.81      5.4900000000000002
   127   1      1.8300000000000001                   10.98      5.4900000000000002
   128   1      1.8300000000000001                   12.81      3.6600000000000001
   129   1                       0                   10.98      7.3200000000000003
   130   1                       0                   12.81      9.1500000000000004
   131   1      1.8300000000000001                   10.98      9.1500000000000004
   132   1      1.8300000000000001                   12.81      7.3200000000000003
   133   1                       0                   10.98                   10.98
   134   1                       0                   12.81                   12.81
   135   1      1.8300000000000001                   10.98                   12.81
   136   1      1.8300000000000001                   12.81                   10.98
   137   1                       0                   10.98      14.640000000000001
   138   1                       0                   12.81      16.469999999999999
   139   1      1.8300000000000001                   10.98      16.469999999999999
   140   1      1.8300000000000001                   12.81      14.640000000000001
   141   1                       0                   10.98      18.300000000000001
   142   1                       0                   12.81      20.130000000000003
   143   1      1.8300000000000001                   10.98      20.130000000000003
   144   1      1.8300000000000001                   12.81      18.300000000000001
   145   1                       0                   10.98      21.960000000000001
   146   1                       0                   12.81      23.789999999999999
   147   1      1.8300000000000001                   10.98      23.789999999999999
   148   1      1.8300000000000001                   12.81      21.960000000000001
   149   1                       0                   10.98      25.620000000000001
   150   1                       0                   12.81      27.450000000000003
   151   1      1.8300000000000001                   10.98      27.450000000000003
   152   1      1.8300000000000001                   12.81      25.620000000000001
   153   1                       0                   10.98      29.280000000000001
   154   1                       0                   12.81      31.109999999999999
   155   1      1.8300000000000001                   10.98      31.109999999999999
   156   1      1.8300000000000001                   12.81      29.280000000000001
   157   1                       0                   10.98      32.939999999999998
   158   1                       0                   12.81      34.769999999999996
   159   1      1.8300000000000001                   10.98      34.769999999999996
   160   1      1.8300000000000001                   12.81      32.939999999999998
   161   1                       0      14.640000000000001                       0
   162   1                       0      16.469999999999999      1.8300000000000001
   163   1      1.8300000000000001      14.640000000000001      1.8300000000000001
   164   1      1.8300000000000001      16.469999999999999                       0
   165   1                       0      14.640000000000001      3.6600000000000001
   166   1                       0      16.469999999999999      5.4900000000000002
   167   1      1.8300000000000001      14.640000000000001      5.4900000000000002
   168   1      1.8300000000000001      16.469999999999999      3.6600000000000001
   169   1                       0      14.640000000000001      7.3200000000000003
   170   1                       0      16.469999999999999      9.1500000000000004
   171   1      1.8300000000000001      14.640000000000001      9.1500000000000004
   172   1      1.8300000000000001      16.469999999999999      7.3200000000000003
   173   1                       0      14.640000000000001                   10.98
   174   1                       0      16.469999999999999                   12.81
   175   1      1.8300000000000001      14.640000000000001                   12.81
   176   1      1.8300000000000001      16.469999999999999                   10.98
   177   1                       0      14.640000000000001      14.640000000000001
   178   1                       0      16.469999999999999      16.469999999999999
   179   1      1.8300000000000001      14.640000000000001      16.469999999999999
   180   1      1.8300000000000001      16.469999999999999      14.640000000000001
   181   1                       0      14.640000000000001      18.300000000000001
   182   1                       0      16.469999999999999      20.130000000000003
   183   1      1.8300000000000001      14.640000000000001      20.130000000000003
   184   1      1.8300000000000001      16.469999999999999      18.300000000000001
   185   1                       0      14.640000000000001      21.960000000000001
   186   1                       0      16.469999999999999      23.789999999999999
   187   1      1.8300000000000001      14.640000000000001      23.789999999999999
   188   1      1.8300000000000001      16.469999999999999      21.960000000000001
   189   1                       0      14.640000000000001      25.620000000000001
   190   1                       0      16.469999999999999      27.450000000000003
   191   1      1.8300000000000001      14.640000000000001      27.450000000000003
   192   1      1.8300000000000001      16.469999999999999      25.620000000000001
   193   1                       0      14.640000000000001      29.280000000000001
   194   1                       0      16.469999999999999      31.109999999999999
   195   1      1.8300000000000001      14.640000000000001      31.109999999999999
   196   1      1.8300000000000001      16.469999999999999      29.280000000000001
   197   1                       0      14.640000000000001      32.939999999999998
   198   1                       0      16.469999999999999      34.769999999999996
   199   1      1.8300000000000001      14.640000000000001      34.769999999999996
   200   1      1.8300000000000001      16.469999999999999      32.939999999999998
   201   1                       0      18.300000000000001                       0
   202   1                       0      20.130000000000003      1.8300000000000001
   203   1      1.8300000000000001      18.300000000000001      1.8300000000000001
   204   1      1.8300000000000001      20.130000000000003                       0
   205   1                       0      18.300000000000001      3.6600000000000001
   206   1                       0      20.130000000000003      5.4900000000000002
   207   1      1.8300000000000001      18.300000000000001      5.4900000000000002
   208   1      1.8300000000000001      20.130000000000003      3.6600000000000001
   209   1                       0      18.300000000000001      7.3200000000000003
   210   1                       0      20.130000000000003      9.1500000000000004
   211   1      1.8300000000000001      18.300000000000001      9.1500000000000004
   212   1      1.8300000000000001      20.130000000000003      7.3200000000000003
   213   1                       0      18.300000000000001                   10.98
   214   1                       0      20.130000000000003                   12.81
   215   1      1.8300000000000001      18.300000000000001                   12.81
   216   1      1.8300000000000001      20.130000000000003                   10.98
   217   1                       0      18.300000000000001      14.640000000000001
   218   1                       0      20.130000000000003      16.469999999999999
   219   1      1.8300000000000001      18.300000000000001      16.469999999999999
   220   1      1.8300000000000001      20.130000000000003      14.640000000000001
   221   1                       0      18.300000000000001      18.300000000000001
   222   1                       0      20.130000000000003      20.130000000000003
   223   1      1.8300000000000001      18.300000000000001      20.130000000000003
   224   1      1.8300000000000001      20.130000000000003      18.300000000000001
   225   1                       0      18.300000000000001      21.960000000000001
   226   1                       0      20.130000000000003      23.789999999999999
   227   1      1.8300000000000001      18.300000000000001      23.789999999999999
   228   1      1.8300000000000001      20.130000000000003      21.960000000000001
   229   1                       0      18.300000000000001      25.620000000000001
   230   1                       0      20.130000000000003      27.450000000000003
   231   1      1.8300000000000001      18.300000000000001      27.450000000000003
   232   1      1.8300000000000001      20.130000000000003      25.620000000000001
   233   1                       0      18.300000000000001      29.280000000000001
   234   1                       0      20.130000000000003      31.109999999999999
   235   1      1.8300000000000001      18.300000000000001      31.109999999999999
   236   1      1.8300000000000001      20.130000000000003      29.280000000000001
   237   1                       0      18.300000000000001      32.939999999999998
   238   1                       0      20.130000000000003      34.769999999999996
   239   1      1.8300000000000001      18.300000000000001      34.769999999999996
   240   1      1.8300000000000001      20.130000000000003      32.939999999999998
   241   1                       0      21.960000000000001                       0
   242   1                       0      23.789999999999999      1.8300000000000001
   243   1      1.8300000000000001      21.960000000000001      1.8300000000000001
   244   1      1.8300000000000001      23.789999999999999                       0
   245   1                       0      21.960000000000001      3.6600000000000001
   246   1                       0      23.789999999999999      5.4900000000000002
   247   1      1.8300000000000001      21.960000000000001      5.4900000000000002
   248   1      1.8300000000000001      23.789999999999999      3.6600000000000001
   249   1                       0      21.960000000000001      7.3200000000000003
   250   1                       0      23.789999999999999      9.1500000000000004
   251   1      1.8300000000000001      21.960000000000001      9.1500000000000004
   252   1      1.8300000000000001      23.789999999999999      7.3200000000000003
   253   1                       0      21.960000000000001                   10.98
   254   1                       0      23.789999999999999                   12.81
   255   1      1.8300000000000001      21.960000000000001                   12.81
   256   1      1.8300000000000001      23.789999999999999                   10.98
   257   1                       0      21.960000000000001      14.640000000000001
   258   1                       0      23.789999999999999      16.469999999999999
   259   1      1.8300000000000001      21.960000000000001      16.469999999999999
   260   1      1.8300000000000001      23.789999999999999      14.640000000000001
   261   1                       0      21.960000000000001      18.300000000000001
   262   1                       0      23.789999999999999      20.130000000000003
   263   1      1.8300000000000001      21.960000000000001      20.130000000000003
   264   1      1.8300000000000001      23.789999999999999      18.300000000000001
   265   1                       0      21.960000000000001      21.960000000000001
   266   1                       0      23.789999999999999      23.789999999999999
   267   1      1.8300000000000001      21.960000000000001      23.789999999999999
   268   1      1.8300000000000001      23.789999999999999      21.960000000000001
   269   1                       0      21.960000000000001      25.620000000000001
   270   1                       0      23.789999999999999      27.450000000000003
   271   1      1.8300000000000001      21.960000000000001      27.450000000000003
   272   1      1.8300000000000001      23.789999999999999      25.620000000000001
   273   1                       0      21.960000000000001      29.280000000000001
   274   1                       0      23.789999999999999      31.109999999999999
   275   1      1.8300000000000001      21.960000000000001      31.109999999999999
   276   1      1.8300000000000001      23.789999999999999      29.280000000000001
   277   1                       0      21.960000000000001      32.939999999999998
   278   1                       0      23.789999999999999      34.769999999999996
   279   1      1.8300000000000001      21.960000000000001      34.769999999999996
   280   1      1.8300000000000001      23.789999999999999      32.939999999999998
   281   1                       0      25.620000000000001                       0
   282   1                       0      27.450000000000003      1.8300000000000001
   283   1      1.8300000000000001      25.620000000000001      1.8300000000000001
   284   1      1.8300000000000001      27.450000000000003                       0
   285   1                       0      25.620000000000001      3.6600000000000001
   286   1                       0      27.450000000000003      5.4900000000000002
   287   1      1.8300000000000001      25.620000000000001      5.4900000000000002
   288   1      1.8300000000000001      27.450000000000003      3.6600000000000001
   289   1                       0      25.620000000000001      7.3200000000000003
   290   1                       0      27.450000000000003      9.1500000000000004
   291   1      1.8300000000000001      25.620000000000001      9.1500000000000004
   292   1      1.8300000000000001      27.450000000000003      7.3200000000000003
   293   1                       0      25.620000000000001                   10.98
   294   1                       0      27.450000000000003                   12.81
   295   1      1.8300000000000001      25.620000000000001                   12.81
   296   1      1.8300000000000001      27.450000000000003                   10.98
   297   1                       0      25.620000000000001      14.640000000000001
   298   1                       0      27.450000000000003      16.469999999999999
   299   1      1.8300000000000001      25.620000000000001      16.469999999999999
   300   1      1.8300000000000001      27.450000000000003      14.640000000000001
   301   1                       0      25.620000000000001      18.300000000000001
   302   1                       0      27.450000000000003      20.130000000000003
   303   1      1.8300000000000001      25.620000000000001      20.130000000000003
   304   1      1.8300000000000001      27.450000000000003      18.300000000000001
   305   1                       0      25.620000000000001      21.960000000000001
   306   1                       0      27.450000000000003      23.789999999999999
   307   1      1.8300000000000001      25.620000000000001      23.789999999999999
   308   1      1.8300000000000001      27.450000000000003      21.960000000000001
   309   1                       0      25.620000000000001      25.620000000000001
   310   1                       0      27.450000000000003      27.450000000000003
   311   1      1.8300000000000001      25.620000000000001      27.450000000000003
   312   1      1.8300000000000001      27.450000000000003      25.620000000000001
   313   1                       0      25.620000000000001      29.280000000000001
   314   1                       0      27.450000000000003      31.109999999999999
   315   1      1.8300000000000001      25.620000000000001      31.109999999999999
   316   1      1.8300000000000001      27.450000000000003      29.280000000000001
   317   1                       0      25.620000000000001      32.939999999999998
   318   1                       0      27.450000000000003      34.769999999999996
   319   1      1.8300000000000001      25.620000000000001      34.769999999999996
   320   1      1.8300000000000001      27.450000000000003      32.939999999999998
   321   1                       0      29.280000000000001                       0
   322   1                       0      31.109999999999999      1.8300000000000001
   323   1      1.8300000000000001      29.280000000000001      1.8300000000000001
   324   1      1.8300000000000001      31.109999999999999                       0
   325   1                       0      29.280000000000001      3.6600000000000001
   326   1                       0      31.109999999999999      5.4900000000000002
   327   1      1.8300000000000001      29.280000000000001      5.4900000000000002
   328   1      1.8300000000000001      31.109999999999999      3.6600000000000001
   329   1                       0      29.280000000000001      7.3200000000000003
   330   1                       0      31.109999999999999      9.1500000000000004
   331   1      1.8300000000000001      29.280000000000001      9.1500000000000004
   332   1      1.8300000000000001      31.109999999999999      7.3200000000000003
   333   1                       0      29.280000000000001                   10.98
   334   1                       0      31.109999999999999                   12.81
   335   1      1.8300000000000001      29.280000000000001                   12.81
   336   1      1.8300000000000001      31.109999999999999                   10.98
   337   1                       0      29.280000000000001      14.640000000000001
   338   1                       0      31.109999999999999      16.469999999999999
   339   1      1.8300000000000001      29.280000000000001      16.469999999999999
   340   1      1.8300000000000001      31.109999999999999      14.640000000000001
   341   1                       0      29.280000000000001      18.300000000000001
   342   1                       0      31.109999999999999      20.130000000000003
   343   1      1.8300000000000001      29.280000000000001      20.130000000000003
   344   1      1.8300000000000001      31.109999999999999      18.300000000000001
   345   1                       0      29.280000000000001      21.960000000000001
   346   1                       0      31.109999999999999      23.789999999999999
   347   1      1.8300000000000001      29.280000000000001      23.789999999999999
   348   1      1.8300000000000001      31.109999999999999      21.960000000000001
   349   1                       0      29.280000000000001      25.620000000000001
   350   1                       0      31.109999999999999      27.450000000000003
   351   1      1.8300000000000001      29.280000000000001      27.450000000000003
   352   1      1.8300000000000001      31.109999999999999      25.620000000000001
   353   1                       0      29.280000000000001      29.280000000000001
   354   1                       0      31.109999999999999      31.109999999999999
   355   1      1.8300000000000001      29.280000000000001      31.109999999999999
   356   1      1.8300000000000001      31.109999999999999      29.280000000000001
   357   1                       0      29.280000000000001      32.939999999999998
   358   1                       0      31.109999999999999      34.769999999999996
   359   1      1.8300000000000001      29.280000000000001      34.769999999999996